                               Psi4 1.9.1 release

  ==> Input File <==

--------------------------------------------------------------------------
molecule trimer_sub3f_4_5230 {
O 29.7298775 28.7905693 13.3669500
H 28.9162426 28.5478725 12.9321842
H 30.0577316 29.5761147 12.8979540
--
O 30.7100487 31.1541729 12.3198385
H 30.8583927 31.5918179 13.1748171
H 31.4290142 31.4305325 11.7571325
--
O 30.5369911 29.5953159 15.8858290
H 31.0147572 28.8934307 16.3205948
H 30.2152100 29.2193432 15.0493917
}

set basis 6-31G*

ecp = {}

label = 'trimer_sub3f_4_5230-230'

ecp[label] = energy('b3lyp-d3', bsse_type = 'vmfc', max_nbody = 3)
--------------------------------------------------------------------------

                               Psi4 1.9.1 release
    Molecular point group: c1
  Charge       = 0
  Multiplicity = 1
  Basis Set: 6-31G*
    Blend: 6-31G*
  Basis Set: (6-31G* AUX)
    Blend: CC-PVDZ-JKFIT
  @DF-RKS Final Energy:   -76.40863831299218
    Total Energy =                        -76.4086383129921813
 Dipole X            :         12.0216991          -12.3657185           -0.3440194
 Dipole Y            :         19.3694023          -18.9949710            0.3744312
 Dipole Z            :          9.9908785          -10.6215343           -0.6306557
 Magnitude           :                                                    0.8101079
                               Psi4 1.9.1 release
    Molecular point group: c1
  Basis Set: 6-31G*
    Blend: 6-31G*
  Basis Set: (6-31G* AUX)
    Blend: CC-PVDZ-JKFIT
  @DF-RKS Final Energy:   -76.40863830534042
    Total Energy =                        -76.4086383053404177
                               Psi4 1.9.1 release
  Basis Set: 6-31G*
    Blend: 6-31G*
  Basis Set: (6-31G* AUX)
    Blend: CC-PVDZ-JKFIT
  @DF-RKS Final Energy:   -76.40863829748456
    Total Energy =                        -76.4086382974845435
                               Psi4 1.9.1 release
  Basis Set: 6-31G*
    Blend: 6-31G*
  Basis Set: (6-31G* AUX)
    Blend: CC-PVDZ-JKFIT
  @DF-RKS Final Energy:   -76.40897246032408
    Total Energy =                        -76.4089724603240796
                               Psi4 1.9.1 release
  @DF-RKS Final Energy:  -152.82891111368971
    Total Energy =                       -152.8289111136897134
                               Psi4 1.9.1 release
  @DF-RKS Final Energy:   -76.41051611451049
    Total Energy =                        -76.4105161145104717
                               Psi4 1.9.1 release
  @DF-RKS Final Energy:  -152.82088371219822
    Total Energy =                       -152.8208837121982242
                               Psi4 1.9.1 release
  @DF-RKS Final Energy:   -76.40897245428984
    Total Energy =                        -76.4089724542898381
                               Psi4 1.9.1 release
  @DF-RKS Final Energy:   -76.41051609695262
    Total Energy =                        -76.4105160969526054
                               Psi4 1.9.1 release
  @DF-RKS Final Energy:   -76.40925850440439
    Total Energy =                        -76.4092585044043915
                               Psi4 1.9.1 release
  @DF-RKS Final Energy:   -76.40925849626900
    Total Energy =                        -76.4092584962690040
                               Psi4 1.9.1 release
  @DF-RKS Final Energy:  -152.82891111547718
    Total Energy =                       -152.8289111154771831
                               Psi4 1.9.1 release
  @DF-RKS Final Energy:   -76.41112052041065
    Total Energy =                        -76.4111205204106483
                               Psi4 1.9.1 release
  @DF-RKS Final Energy:   -76.41062098585455
    Total Energy =                        -76.4106209858545498
                               Psi4 1.9.1 release
  @DF-RKS Final Energy:  -152.82321250323133
    Total Energy =                       -152.8232125032313320
                               Psi4 1.9.1 release
  Basis Set: 6-31G*
    Blend: 6-31G*
  Basis Set: (6-31G* AUX)
    Blend: CC-PVDZ-JKFIT
  @DF-RKS Final Energy:  -229.25551743208703
    Total Energy =                       -229.2555174320870321
                               Psi4 1.9.1 release
  Basis Set: 6-31G*
    Blend: 6-31G*
  Basis Set: (6-31G* AUX)
    Blend: CC-PVDZ-JKFIT
  @DF-RKS Final Energy:  -152.82980895622504
    Total Energy =                       -152.8298089562250368
                               Psi4 1.9.1 release
  Multiplicity = 1
  Basis Set: 6-31G*
    Blend: 6-31G*
  Basis Set: (6-31G* AUX)
    Blend: CC-PVDZ-JKFIT
  @DF-RKS Final Energy:  -152.83131519321489
    Total Energy =                       -152.8313151932148912
                               Psi4 1.9.1 release
    Molecular point group: c1

    Geometry (in Bohr), charge = 0, multiplicity = 1:

       Center              X                  Y                   Z               Mass
    ------------   -----------------  -----------------  -----------------  -----------------
      Gh(O)          -1.144772584161    -2.002080622567    -0.891367199108    15.994914619570
      Gh(H)          -2.682319711275    -2.460711106092    -1.712955489823     1.007825032230
      Gh(H)          -0.525218126052    -0.517614957454    -1.777641193043     1.007825032230
      Gh(O)           0.707482539901     2.464482850579    -2.870121156925    15.994914619570
      Gh(H)           0.987812072256     3.291512040755    -1.254445759798     1.007825032230
      Gh(H)           2.066130428553     2.986726806720    -3.933481386077     1.007825032230
         O            0.380451071972    -0.481329948174     3.868624254059    15.994914619570
         H            1.283298153000    -1.807700747686     4.690212544775     1.007825032230
         H           -0.227627079377    -1.191815381823     2.287986835942     1.007825032230

  Charge       = 0
  Multiplicity = 1
  Basis Set: 6-31G*
    Blend: 6-31G*
  Basis Set: (6-31G* AUX)
    Blend: CC-PVDZ-JKFIT

    Orbital Energies [Eh]
    ---------------------

    Doubly Occupied:

       1A    -19.137577     2A     -0.999624     3A     -0.524037
       4A     -0.369193     5A     -0.292125

  @DF-RKS Final Energy:   -76.40956147158153

   => Energetics <=

    Nuclear Repulsion Energy =              9.1383335927959113
    One-Electron Energy =                -123.0242822032023753
    Two-Electron Energy =                  45.0349330005159345
    DFT Exchange-Correlation Energy =      -7.5585370656320992
    Empirical Dispersion Energy =          -0.0000087960589121
    VV10 Nonlocal Energy =                  0.0000000000000000
    Total Energy =                        -76.4095614715815259
 Dipole X            :         -3.9849293            4.0992796            0.1143503
 Dipole Y            :          6.0920555           -6.8501557           -0.7581002
 Dipole Z            :        -38.1874944           37.9271934           -0.2603010
 Magnitude           :                                                    0.8096595
*** Psi4 exiting successfully. Buy a developer a beer!
